2
Coordinates from ORCA-job .\krkr Relaxed Surface Scan Step 1
  Kr      0.400000      0.000000      0.000000
  Kr      3.200000      0.000000      0.000000
>
2
Coordinates from ORCA-job .\krkr Relaxed Surface Scan Step 2
  Kr     -0.180000      0.000000      0.000000
  Kr      2.980000      0.000000      0.000000
>
2
Coordinates from ORCA-job .\krkr Relaxed Surface Scan Step 3
  Kr     -0.180000      0.000000      0.000000
  Kr      3.340000      0.000000      0.000000
>
2
Coordinates from ORCA-job .\krkr Relaxed Surface Scan Step 4
  Kr     -0.180000      0.000000      0.000000
  Kr      3.700000      0.000000      0.000000
>
2
Coordinates from ORCA-job .\krkr Relaxed Surface Scan Step 5
  Kr     -0.180000      0.000000      0.000000
  Kr      4.060000      0.000000      0.000000
>
2
Coordinates from ORCA-job .\krkr Relaxed Surface Scan Step 6
  Kr     -0.180000      0.000000      0.000000
  Kr      4.420000      0.000000      0.000000
>
2
Coordinates from ORCA-job .\krkr Relaxed Surface Scan Step 7
  Kr     -0.180000      0.000000      0.000000
  Kr      4.780000      0.000000      0.000000
>
2
Coordinates from ORCA-job .\krkr Relaxed Surface Scan Step 8
  Kr     -0.180000      0.000000      0.000000
  Kr      5.140000      0.000000      0.000000
>
2
Coordinates from ORCA-job .\krkr Relaxed Surface Scan Step 9
  Kr     -0.180000      0.000000      0.000000
  Kr      5.500000      0.000000      0.000000
>
2
Coordinates from ORCA-job .\krkr Relaxed Surface Scan Step 10
  Kr     -0.180000      0.000000      0.000000
  Kr      5.860000      0.000000      0.000000
>
2
Coordinates from ORCA-job .\krkr Relaxed Surface Scan Step 11
  Kr     -0.180000      0.000000      0.000000
  Kr      6.220000      0.000000      0.000000
>
2
Coordinates from ORCA-job .\krkr Relaxed Surface Scan Step 12
  Kr     -0.180000      0.000000      0.000000
  Kr      6.580000      0.000000      0.000000
>
2
Coordinates from ORCA-job .\krkr Relaxed Surface Scan Step 13
  Kr     -0.180000      0.000000      0.000000
  Kr      6.940000      0.000000      0.000000
>
2
Coordinates from ORCA-job .\krkr Relaxed Surface Scan Step 14
  Kr     -0.180000      0.000000      0.000000
  Kr      7.300000      0.000000      0.000000
>
2
Coordinates from ORCA-job .\krkr Relaxed Surface Scan Step 15
  Kr     -0.180000      0.000000      0.000000
  Kr      7.660000      0.000000      0.000000
>
2
Coordinates from ORCA-job .\krkr Relaxed Surface Scan Step 16
  Kr     -0.180000      0.000000      0.000000
  Kr      8.020000      0.000000      0.000000
>
2
Coordinates from ORCA-job .\krkr Relaxed Surface Scan Step 17
  Kr     -0.180000      0.000000      0.000000
  Kr      8.380000      0.000000      0.000000
>
2
Coordinates from ORCA-job .\krkr Relaxed Surface Scan Step 18
  Kr     -0.180000      0.000000      0.000000
  Kr      8.740000      0.000000      0.000000
>
2
Coordinates from ORCA-job .\krkr Relaxed Surface Scan Step 19
  Kr     -0.180000      0.000000      0.000000
  Kr      9.100000      0.000000      0.000000
>
2
Coordinates from ORCA-job .\krkr Relaxed Surface Scan Step 20
  Kr     -0.180000      0.000000      0.000000
  Kr      9.460000      0.000000      0.000000
>
2
Coordinates from ORCA-job .\krkr Relaxed Surface Scan Step 21
  Kr     -0.180000      0.000000      0.000000
  Kr      9.820000      0.000000      0.000000
