2
Coordinates from ORCA-job .\krkr Relaxed Surface Scan Step 1
  Kr      0.400000      0.000000      0.000000
  Kr      3.200000      0.000000      0.000000
>
2
Coordinates from ORCA-job .\krkr Relaxed Surface Scan Step 2
  Kr     -0.036364      0.000000      0.000000
  Kr      2.836364      0.000000      0.000000
>
2
Coordinates from ORCA-job .\krkr Relaxed Surface Scan Step 3
  Kr     -0.036364      0.000000      0.000000
  Kr      2.909091      0.000000      0.000000
>
2
Coordinates from ORCA-job .\krkr Relaxed Surface Scan Step 4
  Kr     -0.036364      0.000000      0.000000
  Kr      2.981818      0.000000      0.000000
>
2
Coordinates from ORCA-job .\krkr Relaxed Surface Scan Step 5
  Kr     -0.036364      0.000000      0.000000
  Kr      3.054545      0.000000      0.000000
>
2
Coordinates from ORCA-job .\krkr Relaxed Surface Scan Step 6
  Kr     -0.036364      0.000000      0.000000
  Kr      3.127273      0.000000      0.000000
>
2
Coordinates from ORCA-job .\krkr Relaxed Surface Scan Step 7
  Kr     -0.036364      0.000000      0.000000
  Kr      3.200000      0.000000      0.000000
>
2
Coordinates from ORCA-job .\krkr Relaxed Surface Scan Step 8
  Kr     -0.036364      0.000000      0.000000
  Kr      3.272727      0.000000      0.000000
>
2
Coordinates from ORCA-job .\krkr Relaxed Surface Scan Step 9
  Kr     -0.036364      0.000000      0.000000
  Kr      3.345455      0.000000      0.000000
>
2
Coordinates from ORCA-job .\krkr Relaxed Surface Scan Step 10
  Kr     -0.036364      0.000000      0.000000
  Kr      3.418182      0.000000      0.000000
>
2
Coordinates from ORCA-job .\krkr Relaxed Surface Scan Step 11
  Kr     -0.036364      0.000000      0.000000
  Kr      3.490909      0.000000      0.000000
>
2
Coordinates from ORCA-job .\krkr Relaxed Surface Scan Step 12
  Kr     -0.036364      0.000000      0.000000
  Kr      3.563636      0.000000      0.000000
>
2
Coordinates from ORCA-job .\krkr Relaxed Surface Scan Step 13
  Kr     -0.036364      0.000000      0.000000
  Kr      3.636364      0.000000      0.000000
>
2
Coordinates from ORCA-job .\krkr Relaxed Surface Scan Step 14
  Kr     -0.036364      0.000000      0.000000
  Kr      3.709091      0.000000      0.000000
>
2
Coordinates from ORCA-job .\krkr Relaxed Surface Scan Step 15
  Kr     -0.036364      0.000000      0.000000
  Kr      3.781818      0.000000      0.000000
>
2
Coordinates from ORCA-job .\krkr Relaxed Surface Scan Step 16
  Kr     -0.036364      0.000000      0.000000
  Kr      3.854545      0.000000      0.000000
>
2
Coordinates from ORCA-job .\krkr Relaxed Surface Scan Step 17
  Kr     -0.036364      0.000000      0.000000
  Kr      3.927273      0.000000      0.000000
>
2
Coordinates from ORCA-job .\krkr Relaxed Surface Scan Step 18
  Kr     -0.036364      0.000000      0.000000
  Kr      4.000000      0.000000      0.000000
>
2
Coordinates from ORCA-job .\krkr Relaxed Surface Scan Step 19
  Kr     -0.036364      0.000000      0.000000
  Kr      4.072727      0.000000      0.000000
>
2
Coordinates from ORCA-job .\krkr Relaxed Surface Scan Step 20
  Kr     -0.036364      0.000000      0.000000
  Kr      4.145455      0.000000      0.000000
>
2
Coordinates from ORCA-job .\krkr Relaxed Surface Scan Step 21
  Kr     -0.036364      0.000000      0.000000
  Kr      4.218182      0.000000      0.000000
>
2
Coordinates from ORCA-job .\krkr Relaxed Surface Scan Step 22
  Kr     -0.036364      0.000000      0.000000
  Kr      4.290909      0.000000      0.000000
>
2
Coordinates from ORCA-job .\krkr Relaxed Surface Scan Step 23
  Kr     -0.036364      0.000000      0.000000
  Kr      4.363636      0.000000      0.000000
>
2
Coordinates from ORCA-job .\krkr Relaxed Surface Scan Step 24
  Kr     -0.036364      0.000000      0.000000
  Kr      4.436364      0.000000      0.000000
>
2
Coordinates from ORCA-job .\krkr Relaxed Surface Scan Step 25
  Kr     -0.036364      0.000000      0.000000
  Kr      4.509091      0.000000      0.000000
>
2
Coordinates from ORCA-job .\krkr Relaxed Surface Scan Step 26
  Kr     -0.036364      0.000000      0.000000
  Kr      4.581818      0.000000      0.000000
>
2
Coordinates from ORCA-job .\krkr Relaxed Surface Scan Step 27
  Kr     -0.036364      0.000000      0.000000
  Kr      4.654545      0.000000      0.000000
>
2
Coordinates from ORCA-job .\krkr Relaxed Surface Scan Step 28
  Kr     -0.036364      0.000000      0.000000
  Kr      4.727273      0.000000      0.000000
>
2
Coordinates from ORCA-job .\krkr Relaxed Surface Scan Step 29
  Kr     -0.036364      0.000000      0.000000
  Kr      4.800000      0.000000      0.000000
>
2
Coordinates from ORCA-job .\krkr Relaxed Surface Scan Step 30
  Kr     -0.036364      0.000000      0.000000
  Kr      4.872727      0.000000      0.000000
>
2
Coordinates from ORCA-job .\krkr Relaxed Surface Scan Step 31
  Kr     -0.036364      0.000000      0.000000
  Kr      4.945455      0.000000      0.000000
>
2
Coordinates from ORCA-job .\krkr Relaxed Surface Scan Step 32
  Kr     -0.036364      0.000000      0.000000
  Kr      5.018182      0.000000      0.000000
>
2
Coordinates from ORCA-job .\krkr Relaxed Surface Scan Step 33
  Kr     -0.036364      0.000000      0.000000
  Kr      5.090909      0.000000      0.000000
>
2
Coordinates from ORCA-job .\krkr Relaxed Surface Scan Step 34
  Kr     -0.036364      0.000000      0.000000
  Kr      5.163636      0.000000      0.000000
>
2
Coordinates from ORCA-job .\krkr Relaxed Surface Scan Step 35
  Kr     -0.036364      0.000000      0.000000
  Kr      5.236364      0.000000      0.000000
>
2
Coordinates from ORCA-job .\krkr Relaxed Surface Scan Step 36
  Kr     -0.036364      0.000000      0.000000
  Kr      5.309091      0.000000      0.000000
>
2
Coordinates from ORCA-job .\krkr Relaxed Surface Scan Step 37
  Kr     -0.036364      0.000000      0.000000
  Kr      5.381818      0.000000      0.000000
>
2
Coordinates from ORCA-job .\krkr Relaxed Surface Scan Step 38
  Kr     -0.036364      0.000000      0.000000
  Kr      5.454545      0.000000      0.000000
>
2
Coordinates from ORCA-job .\krkr Relaxed Surface Scan Step 39
  Kr     -0.036364      0.000000      0.000000
  Kr      5.527273      0.000000      0.000000
>
2
Coordinates from ORCA-job .\krkr Relaxed Surface Scan Step 40
  Kr     -0.036364      0.000000      0.000000
  Kr      5.600000      0.000000      0.000000
>
2
Coordinates from ORCA-job .\krkr Relaxed Surface Scan Step 41
  Kr     -0.036364      0.000000      0.000000
  Kr      5.672727      0.000000      0.000000
>
2
Coordinates from ORCA-job .\krkr Relaxed Surface Scan Step 42
  Kr     -0.036364      0.000000      0.000000
  Kr      5.745455      0.000000      0.000000
>
2
Coordinates from ORCA-job .\krkr Relaxed Surface Scan Step 43
  Kr     -0.036364      0.000000      0.000000
  Kr      5.818182      0.000000      0.000000
